unknown system                          
    1.000000000000000     
     9.413439    0.000000    0.000000
    -4.706719    8.152277    0.000000
     0.000000    0.000000   10.000000
   Mo   S 
     9    18
Direct
  0.000000  0.000000  0.500000
  0.000000  0.333333  0.500000
  0.000000  0.666667  0.500000
  0.333333  0.000000  0.500000
  0.333333  0.333333  0.500000
  0.333333  0.666667  0.500000
  0.666667  0.000000  0.500000
  0.666667  0.333333  0.500000
  0.666667  0.666667  0.500000
  0.111111  0.222222  0.343780
  0.111111  0.555556  0.343780
  0.111111  0.888889  0.343780
  0.444444  0.222222  0.343780
  0.444444  0.555556  0.343780
  0.444444  0.888889  0.343780
  0.777778  0.222222  0.343780
  0.777778  0.555556  0.343780
  0.777778  0.888889  0.343780
  0.111111  0.222222  0.656220
  0.111111  0.555556  0.656220
  0.111111  0.888889  0.656220
  0.444444  0.222222  0.656220
  0.444444  0.555556  0.656220
  0.444444  0.888889  0.656220
  0.777778  0.222222  0.656220
  0.777778  0.555556  0.656220
  0.777778  0.888889  0.656220
 
   72   72   72
 0.6913E+01 0.6914E+01 0.6912E+01 0.6911E+01 0.6912E+01
 0.6918E+01 0.6913E+01 0.6915E+01 0.6926E+01 0.6922E+01
 0.6914E+01 0.6913E+01 0.6913E+01 0.6918E+01 0.6926E+01
 0.6918E+01 0.6918E+01 0.6918E+01 0.6917E+01 0.6918E+01
 0.6914E+01 0.6912E+01 0.6912E+01 0.6914E+01 0.6913E+01
 0.6914E+01 0.6912E+01 0.6911E+01 0.6912E+01 0.6918E+01
 0.6913E+01 0.6915E+01 0.6926E+01 0.6922E+01 0.6914E+01
 0.6913E+01 0.6913E+01 0.6918E+01 0.6926E+01 0.6918E+01
 0.6918E+01 0.6918E+01 0.6917E+01 0.6918E+01 0.6914E+01
 0.6912E+01 0.6912E+01 0.6914E+01 0.6913E+01 0.6914E+01
 0.6912E+01 0.6911E+01 0.6912E+01 0.6918E+01 0.6913E+01
 0.6915E+01 0.6926E+01 0.6922E+01 0.6914E+01 0.6913E+01
 0.6913E+01 0.6918E+01 0.6926E+01 0.6918E+01 0.6918E+01
 0.6918E+01 0.6917E+01 0.6918E+01 0.6914E+01 0.6912E+01
 0.6912E+01 0.6914E+01 0.6914E+01 0.6913E+01 0.6913E+01
 0.6912E+01 0.6914E+01 0.6916E+01 0.6921E+01 0.6917E+01
 0.6912E+01 0.6916E+01 0.6923E+01 0.6923E+01 0.6923E+01
 0.6921E+01 0.6915E+01 0.6918E+01 0.6918E+01 0.6918E+01
 0.6916E+01 0.6917E+01 0.6916E+01 0.6912E+01 0.6912E+01
 0.6912E+01 0.6914E+01 0.6913E+01 0.6913E+01 0.6912E+01
 0.6914E+01 0.6916E+01 0.6921E+01 0.6917E+01 0.6912E+01
 0.6916E+01 0.6923E+01 0.6923E+01 0.6923E+01 0.6921E+01
 0.6915E+01 0.6918E+01 0.6918E+01 0.6918E+01 0.6916E+01
 0.6917E+01 0.6916E+01 0.6912E+01 0.6912E+01 0.6912E+01
 0.6914E+01 0.6913E+01 0.6913E+01 0.6912E+01 0.6914E+01
 0.6916E+01 0.6921E+01 0.6917E+01 0.6912E+01 0.6916E+01
 0.6923E+01 0.6923E+01 0.6923E+01 0.6921E+01 0.6915E+01
 0.6918E+01 0.6918E+01 0.6918E+01 0.6916E+01 0.6917E+01
 0.6916E+01 0.6912E+01 0.6912E+01 0.6912E+01 0.6912E+01
 0.6913E+01 0.6912E+01 0.6910E+01 0.6909E+01 0.6915E+01
 0.6914E+01 0.6914E+01 0.6921E+01 0.6917E+01 0.6913E+01
 0.6914E+01 0.6914E+01 0.6915E+01 0.6919E+01 0.6918E+01
 0.6917E+01 0.6917E+01 0.6916E+01 0.6915E+01 0.6917E+01
 0.6915E+01 0.6911E+01 0.6912E+01 0.6912E+01 0.6913E+01
 0.6912E+01 0.6910E+01 0.6909E+01 0.6915E+01 0.6914E+01
 0.6914E+01 0.6921E+01 0.6917E+01 0.6913E+01 0.6914E+01
 0.6914E+01 0.6915E+01 0.6919E+01 0.6918E+01 0.6917E+01
 0.6917E+01 0.6916E+01 0.6915E+01 0.6917E+01 0.6915E+01
 0.6911E+01 0.6912E+01 0.6912E+01 0.6913E+01 0.6912E+01
 0.6910E+01 0.6909E+01 0.6915E+01 0.6914E+01 0.6914E+01
 0.6921E+01 0.6917E+01 0.6913E+01 0.6914E+01 0.6914E+01
 0.6915E+01 0.6919E+01 0.6918E+01 0.6917E+01 0.6917E+01
 0.6916E+01 0.6915E+01 0.6917E+01 0.6915E+01 0.6911E+01
 0.6912E+01 0.6912E+01 0.6911E+01 0.6911E+01 0.6913E+01
 0.6915E+01 0.6916E+01 0.6921E+01 0.6916E+01 0.6911E+01
 0.6916E+01 0.6920E+01 0.6918E+01 0.6919E+01 0.6918E+01
 0.6915E+01 0.6916E+01 0.6916E+01 0.6916E+01 0.6916E+01
 0.6916E+01 0.6915E+01 0.6917E+01 0.6915E+01 0.6912E+01
 0.6912E+01 0.6911E+01 0.6911E+01 0.6913E+01 0.6915E+01
 0.6916E+01 0.6921E+01 0.6916E+01 0.6911E+01 0.6916E+01
 0.6920E+01 0.6918E+01 0.6919E+01 0.6918E+01 0.6915E+01
 0.6916E+01 0.6916E+01 0.6916E+01 0.6916E+01 0.6916E+01
 0.6915E+01 0.6917E+01 0.6915E+01 0.6912E+01 0.6912E+01
 0.6911E+01 0.6911E+01 0.6913E+01 0.6915E+01 0.6916E+01
 0.6921E+01 0.6916E+01 0.6911E+01 0.6916E+01 0.6920E+01
 0.6918E+01 0.6919E+01 0.6918E+01 0.6915E+01 0.6916E+01
 0.6916E+01 0.6916E+01 0.6916E+01 0.6916E+01 0.6915E+01
 0.6917E+01 0.6915E+01 0.6912E+01 0.6914E+01 0.6913E+01
 0.6913E+01 0.6911E+01 0.6911E+01 0.6915E+01 0.6914E+01
 0.6915E+01 0.6920E+01 0.6916E+01 0.6912E+01 0.6914E+01
 0.6913E+01 0.6914E+01 0.6916E+01 0.6916E+01 0.6915E+01
 0.6916E+01 0.6915E+01 0.6916E+01 0.6915E+01 0.6915E+01
 0.6917E+01 0.6916E+01 0.6914E+01 0.6913E+01 0.6913E+01
 0.6911E+01 0.6911E+01 0.6915E+01 0.6914E+01 0.6915E+01
 0.6920E+01 0.6916E+01 0.6912E+01 0.6914E+01 0.6913E+01
 0.6914E+01 0.6916E+01 0.6916E+01 0.6915E+01 0.6916E+01
 0.6915E+01 0.6916E+01 0.6915E+01 0.6915E+01 0.6917E+01
 0.6916E+01 0.6914E+01 0.6913E+01 0.6913E+01 0.6911E+01
 0.6911E+01 0.6915E+01 0.6914E+01 0.6915E+01 0.6920E+01
 0.6916E+01 0.6912E+01 0.6914E+01 0.6913E+01 0.6914E+01
 0.6916E+01 0.6916E+01 0.6915E+01 0.6916E+01 0.6915E+01
 0.6916E+01 0.6915E+01 0.6915E+01 0.6917E+01 0.6916E+01
 0.6918E+01 0.6917E+01 0.6915E+01 0.6918E+01 0.6920E+01
 0.6920E+01 0.6921E+01 0.6915E+01 0.6911E+01 0.6916E+01
 0.6919E+01 0.6916E+01 0.6917E+01 0.6916E+01 0.6914E+01
 0.6915E+01 0.6915E+01 0.6915E+01 0.6915E+01 0.6915E+01
 0.6916E+01 0.6916E+01 0.6915E+01 0.6917E+01 0.6918E+01
 0.6917E+01 0.6915E+01 0.6918E+01 0.6920E+01 0.6920E+01
 0.6921E+01 0.6915E+01 0.6911E+01 0.6916E+01 0.6919E+01
 0.6916E+01 0.6917E+01 0.6916E+01 0.6914E+01 0.6915E+01
 0.6915E+01 0.6915E+01 0.6915E+01 0.6915E+01 0.6916E+01
 0.6916E+01 0.6915E+01 0.6917E+01 0.6918E+01 0.6917E+01
 0.6915E+01 0.6918E+01 0.6920E+01 0.6920E+01 0.6921E+01
 0.6915E+01 0.6911E+01 0.6916E+01 0.6919E+01 0.6916E+01
 0.6917E+01 0.6916E+01 0.6914E+01 0.6915E+01 0.6915E+01
 0.6915E+01 0.6915E+01 0.6915E+01 0.6916E+01 0.6916E+01
 0.6915E+01 0.6917E+01 0.6917E+01 0.6918E+01 0.6921E+01
 0.6917E+01 0.6916E+01 0.6915E+01 0.6913E+01 0.6916E+01
 0.6921E+01 0.6915E+01 0.6912E+01 0.6915E+01 0.6913E+01
 0.6913E+01 0.6915E+01 0.6915E+01 0.6914E+01 0.6915E+01
 0.6915E+01 0.6915E+01 0.6915E+01 0.6916E+01 0.6916E+01
 0.6916E+01 0.6917E+01 0.6918E+01 0.6921E+01 0.6917E+01
 0.6916E+01 0.6915E+01 0.6913E+01 0.6916E+01 0.6921E+01
 0.6915E+01 0.6912E+01 0.6915E+01 0.6913E+01 0.6913E+01
 0.6915E+01 0.6915E+01 0.6914E+01 0.6915E+01 0.6915E+01
 0.6915E+01 0.6915E+01 0.6916E+01 0.6916E+01 0.6916E+01
 0.6917E+01 0.6918E+01 0.6921E+01 0.6917E+01 0.6916E+01
 0.6915E+01 0.6913E+01 0.6916E+01 0.6921E+01 0.6915E+01
 0.6912E+01 0.6915E+01 0.6913E+01 0.6913E+01 0.6915E+01
 0.6915E+01 0.6914E+01 0.6915E+01 0.6915E+01 0.6915E+01
 0.6915E+01 0.6916E+01 0.6916E+01 0.6916E+01 0.6918E+01
 0.6917E+01 0.6915E+01 0.6921E+01 0.6923E+01 0.6922E+01
 0.6922E+01 0.6916E+01 0.6912E+01 0.6918E+01 0.6920E+01
 0.6916E+01 0.6917E+01 0.6916E+01 0.6914E+01 0.6914E+01
 0.6914E+01 0.6914E+01 0.6915E+01 0.6915E+01 0.6916E+01
 0.6916E+01 0.6917E+01 0.6918E+01 0.6918E+01 0.6917E+01
 0.6915E+01 0.6921E+01 0.6923E+01 0.6922E+01 0.6922E+01
 0.6916E+01 0.6912E+01 0.6918E+01 0.6920E+01 0.6916E+01
 0.6917E+01 0.6916E+01 0.6914E+01 0.6914E+01 0.6914E+01
 0.6914E+01 0.6915E+01 0.6915E+01 0.6916E+01 0.6916E+01
 0.6917E+01 0.6918E+01 0.6918E+01 0.6917E+01 0.6915E+01
 0.6921E+01 0.6923E+01 0.6922E+01 0.6922E+01 0.6916E+01
 0.6912E+01 0.6918E+01 0.6920E+01 0.6916E+01 0.6917E+01
 0.6916E+01 0.6914E+01 0.6914E+01 0.6914E+01 0.6914E+01
 0.6915E+01 0.6915E+01 0.6916E+01 0.6916E+01 0.6917E+01
 0.6918E+01 0.6918E+01 0.6919E+01 0.6926E+01 0.6918E+01
 0.6913E+01 0.6913E+01 0.6914E+01 0.6922E+01 0.6925E+01
 0.6915E+01 0.6913E+01 0.6917E+01 0.6913E+01 0.6914E+01
 0.6914E+01 0.6915E+01 0.6914E+01 0.6914E+01 0.6914E+01
 0.6915E+01 0.6915E+01 0.6916E+01 0.6917E+01 0.6918E+01
 0.6918E+01 0.6919E+01 0.6926E+01 0.6918E+01 0.6913E+01
 0.6913E+01 0.6914E+01 0.6922E+01 0.6925E+01 0.6915E+01
 0.6913E+01 0.6917E+01 0.6913E+01 0.6914E+01 0.6914E+01
 0.6915E+01 0.6914E+01 0.6914E+01 0.6914E+01 0.6915E+01
 0.6915E+01 0.6916E+01 0.6917E+01 0.6918E+01 0.6918E+01
 0.6919E+01 0.6926E+01 0.6918E+01 0.6913E+01 0.6913E+01
 0.6914E+01 0.6922E+01 0.6925E+01 0.6915E+01 0.6913E+01
 0.6917E+01 0.6913E+01 0.6914E+01 0.6914E+01 0.6915E+01
 0.6914E+01 0.6914E+01 0.6914E+01 0.6915E+01 0.6915E+01
 0.6916E+01 0.6917E+01 0.6918E+01 0.6918E+01 0.6925E+01
 0.6908E+01 0.6914E+01 0.6928E+01 0.6928E+01 0.6926E+01
 0.6913E+01 0.6910E+01 0.6923E+01 0.6923E+01 0.6916E+01
 0.6919E+01 0.6916E+01 0.6916E+01 0.6914E+01 0.6915E+01
 0.6914E+01 0.6915E+01 0.6915E+01 0.6916E+01 0.6916E+01
 0.6918E+01 0.6918E+01 0.6918E+01 0.6925E+01 0.6908E+01
 0.6914E+01 0.6928E+01 0.6928E+01 0.6926E+01 0.6913E+01
 0.6910E+01 0.6923E+01 0.6923E+01 0.6916E+01 0.6919E+01
 0.6916E+01 0.6916E+01 0.6914E+01 0.6915E+01 0.6914E+01
 0.6915E+01 0.6915E+01 0.6916E+01 0.6916E+01 0.6918E+01
 0.6918E+01 0.6918E+01 0.6925E+01 0.6908E+01 0.6914E+01
 0.6928E+01 0.6928E+01 0.6926E+01 0.6913E+01 0.6910E+01
 0.6923E+01 0.6923E+01 0.6916E+01 0.6919E+01 0.6916E+01
 0.6916E+01 0.6914E+01 0.6915E+01 0.6914E+01 0.6915E+01
 0.6915E+01 0.6916E+01 0.6916E+01 0.6918E+01 0.6918E+01
 0.6926E+01 0.6908E+01 0.6924E+01 0.6955E+01 0.6939E+01
 0.6934E+01 0.6933E+01 0.6943E+01 0.6935E+01 0.6913E+01
 0.6914E+01 0.6921E+01 0.6914E+01 0.6916E+01 0.6915E+01
 0.6916E+01 0.6914E+01 0.6914E+01 0.6915E+01 0.6914E+01
 0.6916E+01 0.6915E+01 0.6919E+01 0.6915E+01 0.6926E+01
 0.6908E+01 0.6924E+01 0.6955E+01 0.6939E+01 0.6934E+01
 0.6933E+01 0.6943E+01 0.6935E+01 0.6913E+01 0.6914E+01
 0.6921E+01 0.6914E+01 0.6916E+01 0.6915E+01 0.6916E+01
 0.6914E+01 0.6914E+01 0.6915E+01 0.6914E+01 0.6916E+01
 0.6915E+01 0.6919E+01 0.6915E+01 0.6926E+01 0.6908E+01
 0.6924E+01 0.6955E+01 0.6939E+01 0.6934E+01 0.6933E+01
 0.6943E+01 0.6935E+01 0.6913E+01 0.6914E+01 0.6921E+01
 0.6914E+01 0.6916E+01 0.6915E+01 0.6916E+01 0.6914E+01
 0.6914E+01 0.6915E+01 0.6914E+01 0.6916E+01 0.6915E+01
 0.6919E+01 0.6915E+01 0.6918E+01 0.6913E+01 0.6955E+01
 0.6916E+01 0.6879E+01 0.6879E+01 0.6880E+01 0.6890E+01
 0.6914E+01 0.6945E+01 0.6923E+01 0.6916E+01 0.6922E+01
 0.6918E+01 0.6916E+01 0.6916E+01 0.6914E+01 0.6916E+01
 0.6913E+01 0.6916E+01 0.6914E+01 0.6918E+01 0.6915E+01
 0.6921E+01 0.6918E+01 0.6913E+01 0.6955E+01 0.6916E+01
 0.6879E+01 0.6879E+01 0.6880E+01 0.6890E+01 0.6914E+01
 0.6945E+01 0.6923E+01 0.6916E+01 0.6922E+01 0.6918E+01
 0.6916E+01 0.6916E+01 0.6914E+01 0.6916E+01 0.6913E+01
 0.6916E+01 0.6914E+01 0.6918E+01 0.6915E+01 0.6921E+01
 0.6918E+01 0.6913E+01 0.6955E+01 0.6916E+01 0.6879E+01
 0.6879E+01 0.6880E+01 0.6890E+01 0.6914E+01 0.6945E+01
 0.6923E+01 0.6916E+01 0.6922E+01 0.6918E+01 0.6916E+01
 0.6916E+01 0.6914E+01 0.6916E+01 0.6913E+01 0.6916E+01
 0.6914E+01 0.6918E+01 0.6915E+01 0.6921E+01 0.6913E+01
 0.6927E+01 0.6939E+01 0.6879E+01 0.6894E+01 0.6922E+01
 0.6931E+01 0.6918E+01 0.6889E+01 0.6888E+01 0.6934E+01
 0.6927E+01 0.6912E+01 0.6922E+01 0.6914E+01 0.6919E+01
 0.6913E+01 0.6917E+01 0.6913E+01 0.6917E+01 0.6913E+01
 0.6919E+01 0.6914E+01 0.6923E+01 0.6913E+01 0.6927E+01
 0.6939E+01 0.6879E+01 0.6894E+01 0.6922E+01 0.6931E+01
 0.6918E+01 0.6889E+01 0.6888E+01 0.6934E+01 0.6927E+01
 0.6912E+01 0.6922E+01 0.6914E+01 0.6919E+01 0.6913E+01
 0.6917E+01 0.6913E+01 0.6917E+01 0.6913E+01 0.6919E+01
 0.6914E+01 0.6923E+01 0.6913E+01 0.6927E+01 0.6939E+01
 0.6879E+01 0.6894E+01 0.6922E+01 0.6931E+01 0.6918E+01
 0.6889E+01 0.6888E+01 0.6934E+01 0.6927E+01 0.6912E+01
 0.6922E+01 0.6914E+01 0.6919E+01 0.6913E+01 0.6917E+01
 0.6913E+01 0.6917E+01 0.6913E+01 0.6919E+01 0.6914E+01
 0.6923E+01 0.6913E+01 0.6928E+01 0.6934E+01 0.6878E+01
 0.6922E+01 0.6964E+01 0.6983E+01 0.6983E+01 0.6968E+01
 0.6919E+01 0.6881E+01 0.6934E+01 0.6927E+01 0.6916E+01
 0.6921E+01 0.6916E+01 0.6917E+01 0.6916E+01 0.6915E+01
 0.6916E+01 0.6914E+01 0.6918E+01 0.6914E+01 0.6923E+01
 0.6913E+01 0.6928E+01 0.6934E+01 0.6878E+01 0.6922E+01
 0.6964E+01 0.6983E+01 0.6983E+01 0.6968E+01 0.6919E+01
 0.6881E+01 0.6934E+01 0.6927E+01 0.6916E+01 0.6921E+01
 0.6916E+01 0.6917E+01 0.6916E+01 0.6915E+01 0.6916E+01
 0.6914E+01 0.6918E+01 0.6914E+01 0.6923E+01 0.6913E+01
 0.6928E+01 0.6934E+01 0.6878E+01 0.6922E+01 0.6964E+01
 0.6983E+01 0.6983E+01 0.6968E+01 0.6919E+01 0.6881E+01
 0.6934E+01 0.6927E+01 0.6916E+01 0.6921E+01 0.6916E+01
 0.6917E+01 0.6916E+01 0.6915E+01 0.6916E+01 0.6914E+01
 0.6918E+01 0.6914E+01 0.6923E+01 0.6914E+01 0.6925E+01
 0.6933E+01 0.6880E+01 0.6931E+01 0.6983E+01 0.6982E+01
 0.6985E+01 0.6981E+01 0.6985E+01 0.6927E+01 0.6881E+01
 0.6934E+01 0.6923E+01 0.6914E+01 0.6923E+01 0.6913E+01
 0.6920E+01 0.6912E+01 0.6919E+01 0.6912E+01 0.6920E+01
 0.6913E+01 0.6923E+01 0.6914E+01 0.6925E+01 0.6933E+01
 0.6880E+01 0.6931E+01 0.6983E+01 0.6982E+01 0.6985E+01
 0.6981E+01 0.6985E+01 0.6927E+01 0.6881E+01 0.6934E+01
 0.6923E+01 0.6914E+01 0.6923E+01 0.6913E+01 0.6920E+01
 0.6912E+01 0.6919E+01 0.6912E+01 0.6920E+01 0.6913E+01
 0.6923E+01 0.6914E+01 0.6925E+01 0.6933E+01 0.6880E+01
 0.6931E+01 0.6983E+01 0.6982E+01 0.6985E+01 0.6981E+01
 0.6985E+01 0.6927E+01 0.6881E+01 0.6934E+01 0.6923E+01
 0.6914E+01 0.6923E+01 0.6913E+01 0.6920E+01 0.6912E+01
 0.6919E+01 0.6912E+01 0.6920E+01 0.6913E+01 0.6923E+01
 0.6922E+01 0.6913E+01 0.6943E+01 0.6890E+01 0.6918E+01
 0.6983E+01 0.6985E+01 0.6972E+01 0.6974E+01 0.6981E+01
 0.6985E+01 0.6919E+01 0.6888E+01 0.6945E+01 0.6913E+01
 0.6923E+01 0.6915E+01 0.6918E+01 0.6915E+01 0.6916E+01
 0.6916E+01 0.6916E+01 0.6917E+01 0.6916E+01 0.6922E+01
 0.6913E+01 0.6943E+01 0.6890E+01 0.6918E+01 0.6983E+01
 0.6985E+01 0.6972E+01 0.6974E+01 0.6981E+01 0.6985E+01
 0.6919E+01 0.6888E+01 0.6945E+01 0.6913E+01 0.6923E+01
 0.6915E+01 0.6918E+01 0.6915E+01 0.6916E+01 0.6916E+01
 0.6916E+01 0.6917E+01 0.6916E+01 0.6922E+01 0.6913E+01
 0.6943E+01 0.6890E+01 0.6918E+01 0.6983E+01 0.6985E+01
 0.6972E+01 0.6974E+01 0.6981E+01 0.6985E+01 0.6919E+01
 0.6888E+01 0.6945E+01 0.6913E+01 0.6923E+01 0.6915E+01
 0.6918E+01 0.6915E+01 0.6916E+01 0.6916E+01 0.6916E+01
 0.6917E+01 0.6916E+01 0.6926E+01 0.6910E+01 0.6935E+01
 0.6914E+01 0.6889E+01 0.6968E+01 0.6981E+01 0.6974E+01
 0.6959E+01 0.6974E+01 0.6981E+01 0.6968E+01 0.6889E+01
 0.6914E+01 0.6935E+01 0.6910E+01 0.6925E+01 0.6912E+01
 0.6921E+01 0.6911E+01 0.6920E+01 0.6911E+01 0.6921E+01
 0.6912E+01 0.6926E+01 0.6910E+01 0.6935E+01 0.6914E+01
 0.6889E+01 0.6968E+01 0.6981E+01 0.6974E+01 0.6959E+01
 0.6974E+01 0.6981E+01 0.6968E+01 0.6889E+01 0.6914E+01
 0.6935E+01 0.6910E+01 0.6925E+01 0.6912E+01 0.6921E+01
 0.6911E+01 0.6920E+01 0.6911E+01 0.6921E+01 0.6912E+01
 0.6926E+01 0.6910E+01 0.6935E+01 0.6914E+01 0.6889E+01
 0.6968E+01 0.6981E+01 0.6974E+01 0.6959E+01 0.6974E+01
 0.6981E+01 0.6968E+01 0.6889E+01 0.6914E+01 0.6935E+01
 0.6910E+01 0.6925E+01 0.6912E+01 0.6921E+01 0.6911E+01
 0.6920E+01 0.6911E+01 0.6921E+01 0.6912E+01 0.6915E+01
 0.6923E+01 0.6913E+01 0.6944E+01 0.6888E+01 0.6919E+01
 0.6985E+01 0.6981E+01 0.6974E+01 0.6972E+01 0.6985E+01
 0.6983E+01 0.6918E+01 0.6890E+01 0.6943E+01 0.6913E+01
 0.6922E+01 0.6916E+01 0.6916E+01 0.6915E+01 0.6915E+01
 0.6916E+01 0.6914E+01 0.6917E+01 0.6915E+01 0.6923E+01
 0.6913E+01 0.6944E+01 0.6888E+01 0.6919E+01 0.6985E+01
 0.6981E+01 0.6974E+01 0.6972E+01 0.6985E+01 0.6983E+01
 0.6918E+01 0.6890E+01 0.6943E+01 0.6913E+01 0.6922E+01
 0.6916E+01 0.6916E+01 0.6915E+01 0.6915E+01 0.6916E+01
 0.6914E+01 0.6917E+01 0.6915E+01 0.6923E+01 0.6913E+01
 0.6944E+01 0.6888E+01 0.6919E+01 0.6985E+01 0.6981E+01
 0.6974E+01 0.6972E+01 0.6985E+01 0.6983E+01 0.6918E+01
 0.6890E+01 0.6943E+01 0.6913E+01 0.6922E+01 0.6916E+01
 0.6916E+01 0.6915E+01 0.6915E+01 0.6916E+01 0.6914E+01
 0.6917E+01 0.6913E+01 0.6922E+01 0.6914E+01 0.6923E+01
 0.6934E+01 0.6881E+01 0.6927E+01 0.6985E+01 0.6981E+01
 0.6985E+01 0.6982E+01 0.6983E+01 0.6931E+01 0.6880E+01
 0.6933E+01 0.6926E+01 0.6914E+01 0.6922E+01 0.6913E+01
 0.6921E+01 0.6914E+01 0.6921E+01 0.6914E+01 0.6921E+01
 0.6913E+01 0.6922E+01 0.6914E+01 0.6923E+01 0.6934E+01
 0.6881E+01 0.6927E+01 0.6985E+01 0.6981E+01 0.6985E+01
 0.6982E+01 0.6983E+01 0.6931E+01 0.6880E+01 0.6933E+01
 0.6926E+01 0.6914E+01 0.6922E+01 0.6913E+01 0.6921E+01
 0.6914E+01 0.6921E+01 0.6914E+01 0.6921E+01 0.6913E+01
 0.6922E+01 0.6914E+01 0.6923E+01 0.6934E+01 0.6881E+01
 0.6927E+01 0.6985E+01 0.6981E+01 0.6985E+01 0.6982E+01
 0.6983E+01 0.6931E+01 0.6880E+01 0.6933E+01 0.6926E+01
 0.6914E+01 0.6922E+01 0.6913E+01 0.6921E+01 0.6914E+01
 0.6921E+01 0.6914E+01 0.6921E+01 0.6918E+01 0.6917E+01
 0.6921E+01 0.6916E+01 0.6928E+01 0.6934E+01 0.6881E+01
 0.6919E+01 0.6968E+01 0.6983E+01 0.6983E+01 0.6964E+01
 0.6922E+01 0.6879E+01 0.6934E+01 0.6928E+01 0.6913E+01
 0.6922E+01 0.6915E+01 0.6920E+01 0.6915E+01 0.6916E+01
 0.6915E+01 0.6916E+01 0.6918E+01 0.6917E+01 0.6921E+01
 0.6916E+01 0.6928E+01 0.6934E+01 0.6881E+01 0.6919E+01
 0.6968E+01 0.6983E+01 0.6983E+01 0.6964E+01 0.6922E+01
 0.6879E+01 0.6934E+01 0.6928E+01 0.6913E+01 0.6922E+01
 0.6915E+01 0.6920E+01 0.6915E+01 0.6916E+01 0.6915E+01
 0.6916E+01 0.6918E+01 0.6917E+01 0.6921E+01 0.6916E+01
 0.6928E+01 0.6934E+01 0.6881E+01 0.6919E+01 0.6968E+01
 0.6983E+01 0.6983E+01 0.6964E+01 0.6922E+01 0.6879E+01
 0.6934E+01 0.6928E+01 0.6913E+01 0.6922E+01 0.6915E+01
 0.6920E+01 0.6915E+01 0.6916E+01 0.6915E+01 0.6916E+01
 0.6912E+01 0.6920E+01 0.6916E+01 0.6921E+01 0.6912E+01
 0.6928E+01 0.6934E+01 0.6888E+01 0.6889E+01 0.6918E+01
 0.6931E+01 0.6922E+01 0.6894E+01 0.6879E+01 0.6939E+01
 0.6928E+01 0.6913E+01 0.6923E+01 0.6916E+01 0.6920E+01
 0.6911E+01 0.6915E+01 0.6909E+01 0.6914E+01 0.6912E+01
 0.6920E+01 0.6916E+01 0.6921E+01 0.6912E+01 0.6928E+01
 0.6934E+01 0.6888E+01 0.6889E+01 0.6918E+01 0.6931E+01
 0.6922E+01 0.6894E+01 0.6879E+01 0.6939E+01 0.6928E+01
 0.6913E+01 0.6923E+01 0.6916E+01 0.6920E+01 0.6911E+01
 0.6915E+01 0.6909E+01 0.6914E+01 0.6912E+01 0.6920E+01
 0.6916E+01 0.6921E+01 0.6912E+01 0.6928E+01 0.6934E+01
 0.6888E+01 0.6889E+01 0.6918E+01 0.6931E+01 0.6922E+01
 0.6894E+01 0.6879E+01 0.6939E+01 0.6928E+01 0.6913E+01
 0.6923E+01 0.6916E+01 0.6920E+01 0.6911E+01 0.6915E+01
 0.6909E+01 0.6914E+01 0.6911E+01 0.6913E+01 0.6916E+01
 0.6920E+01 0.6921E+01 0.6916E+01 0.6923E+01 0.6944E+01
 0.6914E+01 0.6890E+01 0.6880E+01 0.6878E+01 0.6879E+01
 0.6916E+01 0.6955E+01 0.6914E+01 0.6918E+01 0.6921E+01
 0.6917E+01 0.6918E+01 0.6911E+01 0.6913E+01 0.6910E+01
 0.6912E+01 0.6911E+01 0.6913E+01 0.6916E+01 0.6920E+01
 0.6921E+01 0.6916E+01 0.6923E+01 0.6944E+01 0.6914E+01
 0.6890E+01 0.6880E+01 0.6878E+01 0.6879E+01 0.6916E+01
 0.6955E+01 0.6914E+01 0.6918E+01 0.6921E+01 0.6917E+01
 0.6918E+01 0.6911E+01 0.6913E+01 0.6910E+01 0.6912E+01
 0.6911E+01 0.6913E+01 0.6916E+01 0.6920E+01 0.6921E+01
 0.6916E+01 0.6923E+01 0.6944E+01 0.6914E+01 0.6890E+01
 0.6880E+01 0.6878E+01 0.6879E+01 0.6916E+01 0.6955E+01
 0.6914E+01 0.6918E+01 0.6921E+01 0.6917E+01 0.6918E+01
 0.6911E+01 0.6913E+01 0.6910E+01 0.6912E+01 0.6912E+01
 0.6913E+01 0.6911E+01 0.6916E+01 0.6916E+01 0.6921E+01
 0.6914E+01 0.6913E+01 0.6935E+01 0.6943E+01 0.6933E+01
 0.6934E+01 0.6939E+01 0.6955E+01 0.6924E+01 0.6908E+01
 0.6926E+01 0.6915E+01 0.6921E+01 0.6915E+01 0.6913E+01
 0.6911E+01 0.6912E+01 0.6913E+01 0.6912E+01 0.6913E+01
 0.6911E+01 0.6916E+01 0.6916E+01 0.6921E+01 0.6914E+01
 0.6913E+01 0.6935E+01 0.6943E+01 0.6933E+01 0.6934E+01
 0.6939E+01 0.6955E+01 0.6924E+01 0.6908E+01 0.6926E+01
 0.6915E+01 0.6921E+01 0.6915E+01 0.6913E+01 0.6911E+01
 0.6912E+01 0.6913E+01 0.6912E+01 0.6913E+01 0.6911E+01
 0.6916E+01 0.6916E+01 0.6921E+01 0.6914E+01 0.6913E+01
 0.6935E+01 0.6943E+01 0.6933E+01 0.6934E+01 0.6939E+01
 0.6955E+01 0.6924E+01 0.6908E+01 0.6926E+01 0.6915E+01
 0.6921E+01 0.6915E+01 0.6913E+01 0.6911E+01 0.6912E+01
 0.6913E+01 0.6914E+01 0.6912E+01 0.6913E+01 0.6913E+01
 0.6920E+01 0.6917E+01 0.6922E+01 0.6923E+01 0.6910E+01
 0.6913E+01 0.6925E+01 0.6928E+01 0.6927E+01 0.6913E+01
 0.6908E+01 0.6925E+01 0.6919E+01 0.6917E+01 0.6918E+01
 0.6917E+01 0.6913E+01 0.6911E+01 0.6913E+01 0.6913E+01
 0.6914E+01 0.6912E+01 0.6913E+01 0.6913E+01 0.6920E+01
 0.6917E+01 0.6922E+01 0.6923E+01 0.6910E+01 0.6913E+01
 0.6925E+01 0.6928E+01 0.6927E+01 0.6913E+01 0.6908E+01
 0.6925E+01 0.6919E+01 0.6917E+01 0.6918E+01 0.6917E+01
 0.6913E+01 0.6911E+01 0.6913E+01 0.6913E+01 0.6914E+01
 0.6912E+01 0.6913E+01 0.6913E+01 0.6920E+01 0.6917E+01
 0.6922E+01 0.6923E+01 0.6910E+01 0.6913E+01 0.6925E+01
 0.6928E+01 0.6927E+01 0.6913E+01 0.6908E+01 0.6925E+01
 0.6919E+01 0.6917E+01 0.6918E+01 0.6917E+01 0.6913E+01
 0.6911E+01 0.6913E+01 0.6913E+01 0.6913E+01 0.6914E+01
 0.6912E+01 0.6911E+01 0.6912E+01 0.6918E+01 0.6913E+01
 0.6915E+01 0.6926E+01 0.6922E+01 0.6914E+01 0.6913E+01
 0.6913E+01 0.6918E+01 0.6926E+01 0.6918E+01 0.6918E+01
 0.6918E+01 0.6917E+01 0.6918E+01 0.6914E+01 0.6912E+01
 0.6912E+01 0.6914E+01 0.6913E+01 0.6914E+01 0.6912E+01
 0.6911E+01 0.6912E+01 0.6918E+01 0.6913E+01 0.6915E+01
 0.6926E+01 0.6922E+01 0.6914E+01 0.6913E+01 0.6913E+01
 0.6918E+01 0.6926E+01 0.6918E+01 0.6918E+01 0.6918E+01
 0.6917E+01 0.6918E+01 0.6914E+01 0.6912E+01 0.6912E+01
 0.6914E+01 0.6913E+01 0.6914E+01 0.6912E+01 0.6911E+01
 0.6912E+01 0.6918E+01 0.6913E+01 0.6915E+01 0.6926E+01
 0.6922E+01 0.6914E+01 0.6913E+01 0.6913E+01 0.6918E+01
 0.6926E+01 0.6918E+01 0.6918E+01 0.6918E+01 0.6917E+01
 0.6918E+01 0.6914E+01 0.6912E+01 0.6912E+01 0.6914E+01
 0.6914E+01 0.6913E+01 0.6913E+01 0.6912E+01 0.6914E+01
 0.6916E+01 0.6921E+01 0.6917E+01 0.6912E+01 0.6916E+01
 0.6923E+01 0.6923E+01 0.6923E+01 0.6921E+01 0.6915E+01
 0.6918E+01 0.6918E+01 0.6918E+01 0.6916E+01 0.6917E+01
 0.6916E+01 0.6912E+01 0.6912E+01 0.6912E+01 0.6914E+01
 0.6913E+01 0.6913E+01 0.6912E+01 0.6914E+01 0.6916E+01
 0.6921E+01 0.6917E+01 0.6912E+01 0.6916E+01 0.6923E+01
 0.6923E+01 0.6923E+01 0.6921E+01 0.6915E+01 0.6918E+01
 0.6918E+01 0.6918E+01 0.6916E+01 0.6917E+01 0.6916E+01
 0.6912E+01 0.6912E+01 0.6912E+01 0.6914E+01 0.6913E+01
 0.6913E+01 0.6912E+01 0.6914E+01 0.6916E+01 0.6921E+01
 0.6917E+01 0.6912E+01 0.6916E+01 0.6923E+01 0.6923E+01
 0.6923E+01 0.6921E+01 0.6915E+01 0.6918E+01 0.6918E+01
 0.6918E+01 0.6916E+01 0.6917E+01 0.6916E+01 0.6912E+01
 0.6912E+01 0.6912E+01 0.6912E+01 0.6913E+01 0.6912E+01
 0.6910E+01 0.6909E+01 0.6915E+01 0.6914E+01 0.6914E+01
 0.6921E+01 0.6917E+01 0.6913E+01 0.6914E+01 0.6914E+01
 0.6915E+01 0.6919E+01 0.6918E+01 0.6917E+01 0.6917E+01
 0.6916E+01 0.6915E+01 0.6917E+01 0.6915E+01 0.6911E+01
 0.6912E+01 0.6912E+01 0.6913E+01 0.6912E+01 0.6910E+01
 0.6909E+01 0.6915E+01 0.6914E+01 0.6914E+01 0.6921E+01
 0.6917E+01 0.6913E+01 0.6914E+01 0.6914E+01 0.6915E+01
 0.6919E+01 0.6918E+01 0.6917E+01 0.6917E+01 0.6916E+01
 0.6915E+01 0.6917E+01 0.6915E+01 0.6911E+01 0.6912E+01
 0.6912E+01 0.6913E+01 0.6912E+01 0.6910E+01 0.6909E+01
 0.6915E+01 0.6914E+01 0.6914E+01 0.6921E+01 0.6917E+01
 0.6913E+01 0.6914E+01 0.6914E+01 0.6915E+01 0.6919E+01
 0.6918E+01 0.6917E+01 0.6917E+01 0.6916E+01 0.6915E+01
 0.6917E+01 0.6915E+01 0.6911E+01 0.6912E+01 0.6912E+01
 0.6911E+01 0.6911E+01 0.6913E+01 0.6915E+01 0.6916E+01
 0.6921E+01 0.6916E+01 0.6911E+01 0.6916E+01 0.6920E+01
 0.6918E+01 0.6919E+01 0.6918E+01 0.6915E+01 0.6916E+01
 0.6916E+01 0.6916E+01 0.6916E+01 0.6916E+01 0.6915E+01
 0.6917E+01 0.6915E+01 0.6912E+01 0.6912E+01 0.6911E+01
 0.6911E+01 0.6913E+01 0.6915E+01 0.6916E+01 0.6921E+01
 0.6916E+01 0.6911E+01 0.6916E+01 0.6920E+01 0.6918E+01
 0.6919E+01 0.6918E+01 0.6915E+01 0.6916E+01 0.6916E+01
 0.6916E+01 0.6916E+01 0.6916E+01 0.6915E+01 0.6917E+01
 0.6915E+01 0.6912E+01 0.6912E+01 0.6911E+01 0.6911E+01
 0.6913E+01 0.6915E+01 0.6916E+01 0.6921E+01 0.6916E+01
 0.6911E+01 0.6916E+01 0.6920E+01 0.6918E+01 0.6919E+01
 0.6918E+01 0.6915E+01 0.6916E+01 0.6916E+01 0.6916E+01
 0.6916E+01 0.6916E+01 0.6915E+01 0.6917E+01 0.6915E+01
 0.6912E+01 0.6914E+01 0.6913E+01 0.6913E+01 0.6911E+01
 0.6911E+01 0.6915E+01 0.6914E+01 0.6915E+01 0.6920E+01
 0.6916E+01 0.6912E+01 0.6914E+01 0.6913E+01 0.6914E+01
 0.6916E+01 0.6916E+01 0.6915E+01 0.6916E+01 0.6915E+01
 0.6916E+01 0.6915E+01 0.6915E+01 0.6917E+01 0.6916E+01
 0.6914E+01 0.6913E+01 0.6913E+01 0.6911E+01 0.6911E+01
 0.6915E+01 0.6914E+01 0.6915E+01 0.6920E+01 0.6916E+01
 0.6912E+01 0.6914E+01 0.6913E+01 0.6914E+01 0.6916E+01
 0.6916E+01 0.6915E+01 0.6916E+01 0.6915E+01 0.6916E+01
 0.6915E+01 0.6915E+01 0.6917E+01 0.6916E+01 0.6914E+01
 0.6913E+01 0.6913E+01 0.6911E+01 0.6911E+01 0.6915E+01
 0.6914E+01 0.6915E+01 0.6920E+01 0.6916E+01 0.6912E+01
 0.6914E+01 0.6913E+01 0.6914E+01 0.6916E+01 0.6916E+01
 0.6915E+01 0.6916E+01 0.6915E+01 0.6916E+01 0.6915E+01
 0.6915E+01 0.6917E+01 0.6916E+01 0.6918E+01 0.6917E+01
 0.6915E+01 0.6918E+01 0.6920E+01 0.6920E+01 0.6921E+01
 0.6915E+01 0.6911E+01 0.6916E+01 0.6919E+01 0.6916E+01
 0.6917E+01 0.6916E+01 0.6914E+01 0.6915E+01 0.6915E+01
 0.6915E+01 0.6915E+01 0.6915E+01 0.6916E+01 0.6916E+01
 0.6915E+01 0.6917E+01 0.6918E+01 0.6917E+01 0.6915E+01
 0.6918E+01 0.6920E+01 0.6920E+01 0.6921E+01 0.6915E+01
 0.6911E+01 0.6916E+01 0.6919E+01 0.6916E+01 0.6917E+01
 0.6916E+01 0.6914E+01 0.6915E+01 0.6915E+01 0.6915E+01
 0.6915E+01 0.6915E+01 0.6916E+01 0.6916E+01 0.6915E+01
 0.6917E+01 0.6918E+01 0.6917E+01 0.6915E+01 0.6918E+01
 0.6920E+01 0.6920E+01 0.6921E+01 0.6915E+01 0.6911E+01
 0.6916E+01 0.6919E+01 0.6916E+01 0.6917E+01 0.6916E+01
 0.6914E+01 0.6915E+01 0.6915E+01 0.6915E+01 0.6915E+01
 0.6915E+01 0.6916E+01 0.6916E+01 0.6915E+01 0.6917E+01
 0.6917E+01 0.6918E+01 0.6921E+01 0.6917E+01 0.6916E+01
 0.6915E+01 0.6913E+01 0.6916E+01 0.6921E+01 0.6915E+01
 0.6912E+01 0.6915E+01 0.6913E+01 0.6913E+01 0.6915E+01
 0.6915E+01 0.6914E+01 0.6915E+01 0.6915E+01 0.6915E+01
 0.6915E+01 0.6916E+01 0.6916E+01 0.6916E+01 0.6917E+01
 0.6918E+01 0.6921E+01 0.6917E+01 0.6916E+01 0.6915E+01
 0.6913E+01 0.6916E+01 0.6921E+01 0.6915E+01 0.6912E+01
 0.6915E+01 0.6913E+01 0.6913E+01 0.6915E+01 0.6915E+01
 0.6914E+01 0.6915E+01 0.6915E+01 0.6915E+01 0.6915E+01
 0.6916E+01 0.6916E+01 0.6916E+01 0.6917E+01 0.6918E+01
 0.6921E+01 0.6917E+01 0.6916E+01 0.6915E+01 0.6913E+01
 0.6916E+01 0.6921E+01 0.6915E+01 0.6912E+01 0.6915E+01
 0.6913E+01 0.6913E+01 0.6915E+01 0.6915E+01 0.6914E+01
 0.6915E+01 0.6915E+01 0.6915E+01 0.6915E+01 0.6916E+01
 0.6916E+01 0.6916E+01 0.6918E+01 0.6917E+01 0.6915E+01
 0.6921E+01 0.6923E+01 0.6922E+01 0.6922E+01 0.6916E+01
 0.6912E+01 0.6918E+01 0.6920E+01 0.6916E+01 0.6917E+01
 0.6916E+01 0.6914E+01 0.6914E+01 0.6914E+01 0.6914E+01
 0.6915E+01 0.6915E+01 0.6916E+01 0.6916E+01 0.6917E+01
 0.6918E+01 0.6918E+01 0.6917E+01 0.6915E+01 0.6921E+01
 0.6923E+01 0.6922E+01 0.6922E+01 0.6916E+01 0.6912E+01
 0.6918E+01 0.6920E+01 0.6916E+01 0.6917E+01 0.6916E+01
 0.6914E+01 0.6914E+01 0.6914E+01 0.6914E+01 0.6915E+01
 0.6915E+01 0.6916E+01 0.6916E+01 0.6917E+01 0.6918E+01
 0.6918E+01 0.6917E+01 0.6915E+01 0.6921E+01 0.6923E+01
 0.6922E+01 0.6922E+01 0.6916E+01 0.6912E+01 0.6918E+01
 0.6920E+01 0.6916E+01 0.6917E+01 0.6916E+01 0.6914E+01
 0.6914E+01 0.6914E+01 0.6914E+01 0.6915E+01 0.6915E+01
 0.6916E+01 0.6916E+01 0.6917E+01 0.6918E+01 0.6918E+01
 0.6919E+01 0.6926E+01 0.6918E+01 0.6913E+01 0.6913E+01
 0.6914E+01 0.6922E+01 0.6925E+01 0.6915E+01 0.6913E+01
 0.6917E+01 0.6913E+01 0.6914E+01 0.6914E+01 0.6915E+01
 0.6914E+01 0.6914E+01 0.6914E+01 0.6915E+01 0.6915E+01
 0.6916E+01 0.6917E+01 0.6918E+01 0.6918E+01 0.6919E+01
 0.6926E+01 0.6918E+01 0.6913E+01 0.6913E+01 0.6914E+01
 0.6922E+01 0.6925E+01 0.6915E+01 0.6913E+01 0.6917E+01
 0.6913E+01 0.6914E+01 0.6914E+01 0.6915E+01 0.6914E+01
 0.6914E+01 0.6914E+01 0.6915E+01 0.6915E+01 0.6916E+01
 0.6917E+01 0.6918E+01 0.6918E+01 0.6919E+01 0.6926E+01
 0.6918E+01 0.6913E+01 0.6913E+01 0.6914E+01 0.6922E+01
 0.6925E+01 0.6915E+01 0.6913E+01 0.6917E+01 0.6913E+01
 0.6914E+01 0.6914E+01 0.6915E+01 0.6914E+01 0.6914E+01
 0.6914E+01 0.6915E+01 0.6915E+01 0.6916E+01 0.6917E+01
 0.6918E+01 0.6918E+01 0.6925E+01 0.6908E+01 0.6914E+01
 0.6928E+01 0.6928E+01 0.6926E+01 0.6913E+01 0.6910E+01
 0.6923E+01 0.6923E+01 0.6916E+01 0.6919E+01 0.6916E+01
 0.6916E+01 0.6914E+01 0.6915E+01 0.6914E+01 0.6915E+01
 0.6915E+01 0.6916E+01 0.6916E+01 0.6918E+01 0.6918E+01
 0.6918E+01 0.6925E+01 0.6908E+01 0.6914E+01 0.6928E+01
 0.6928E+01 0.6926E+01 0.6913E+01 0.6910E+01 0.6923E+01
 0.6923E+01 0.6916E+01 0.6919E+01 0.6916E+01 0.6916E+01
 0.6914E+01 0.6915E+01 0.6914E+01 0.6915E+01 0.6915E+01
 0.6916E+01 0.6916E+01 0.6918E+01 0.6918E+01 0.6918E+01
 0.6925E+01 0.6908E+01 0.6914E+01 0.6928E+01 0.6928E+01
 0.6926E+01 0.6913E+01 0.6910E+01 0.6923E+01 0.6923E+01
 0.6916E+01 0.6919E+01 0.6916E+01 0.6916E+01 0.6914E+01
 0.6915E+01 0.6914E+01 0.6915E+01 0.6915E+01 0.6916E+01
 0.6916E+01 0.6918E+01 0.6918E+01 0.6926E+01 0.6908E+01
 0.6924E+01 0.6955E+01 0.6939E+01 0.6934E+01 0.6933E+01
 0.6943E+01 0.6935E+01 0.6913E+01 0.6914E+01 0.6921E+01
 0.6914E+01 0.6916E+01 0.6915E+01 0.6916E+01 0.6914E+01
 0.6914E+01 0.6915E+01 0.6914E+01 0.6916E+01 0.6915E+01
 0.6919E+01 0.6915E+01 0.6926E+01 0.6908E+01 0.6924E+01
 0.6955E+01 0.6939E+01 0.6934E+01 0.6933E+01 0.6943E+01
 0.6935E+01 0.6913E+01 0.6914E+01 0.6921E+01 0.6914E+01
 0.6916E+01 0.6915E+01 0.6916E+01 0.6914E+01 0.6914E+01
 0.6915E+01 0.6914E+01 0.6916E+01 0.6915E+01 0.6919E+01
 0.6915E+01 0.6926E+01 0.6908E+01 0.6924E+01 0.6955E+01
 0.6939E+01 0.6934E+01 0.6933E+01 0.6943E+01 0.6935E+01
 0.6913E+01 0.6914E+01 0.6921E+01 0.6914E+01 0.6916E+01
 0.6915E+01 0.6916E+01 0.6914E+01 0.6914E+01 0.6915E+01
 0.6914E+01 0.6916E+01 0.6915E+01 0.6919E+01 0.6915E+01
 0.6918E+01 0.6913E+01 0.6955E+01 0.6916E+01 0.6879E+01
 0.6879E+01 0.6880E+01 0.6890E+01 0.6914E+01 0.6945E+01
 0.6923E+01 0.6916E+01 0.6922E+01 0.6918E+01 0.6916E+01
 0.6916E+01 0.6914E+01 0.6916E+01 0.6913E+01 0.6916E+01
 0.6914E+01 0.6918E+01 0.6915E+01 0.6921E+01 0.6918E+01
 0.6913E+01 0.6955E+01 0.6916E+01 0.6879E+01 0.6879E+01
 0.6880E+01 0.6890E+01 0.6914E+01 0.6945E+01 0.6923E+01
 0.6916E+01 0.6922E+01 0.6918E+01 0.6916E+01 0.6916E+01
 0.6914E+01 0.6916E+01 0.6913E+01 0.6916E+01 0.6914E+01
 0.6918E+01 0.6915E+01 0.6921E+01 0.6918E+01 0.6913E+01
 0.6955E+01 0.6916E+01 0.6879E+01 0.6879E+01 0.6880E+01
 0.6890E+01 0.6914E+01 0.6945E+01 0.6923E+01 0.6916E+01